[
  {
    "name": "Aceton",
    "trade_name": "",
    "cas": "67-64-1",
    "ec": "200-662-2",
    "description": "Lösungsmittel, Reinigungsmittel, Extraktionsmittel",
    "storage_class": "3",
    "is_cmr": false,
    "flash_point_c": -20.0,
    "ignition_temperature_c": 535.0,
    "lower_explosion_limit": 2.5,
    "upper_explosion_limit": 12.8,
    "temperature_class": "T1",
    "explosion_group": "IIA",
    "vapor_density": 2.0,
    "signal_word": "danger",
    "h_statements": ["H225", "H319", "H336"],
    "p_statements": ["P210", "P233", "P240", "P241", "P242", "P243", "P280", "P305", "P351", "P338", "P403"],
    "pictograms": ["GHS02", "GHS07"]
  },
  {
    "name": "Methanol",
    "trade_name": "Methylalkohol",
    "cas": "67-56-1",
    "ec": "200-659-6",
    "description": "Lösungsmittel, Kraftstoffzusatz, Synthesechemikalie",
    "storage_class": "3",
    "is_cmr": false,
    "flash_point_c": 11.0,
    "ignition_temperature_c": 440.0,
    "lower_explosion_limit": 6.0,
    "upper_explosion_limit": 36.5,
    "temperature_class": "T1",
    "explosion_group": "IIA",
    "vapor_density": 1.1,
    "signal_word": "danger",
    "h_statements": ["H225", "H301", "H311", "H331", "H370"],
    "p_statements": ["P210", "P233", "P280", "P302", "P352", "P304", "P340", "P308", "P310", "P403"],
    "pictograms": ["GHS02", "GHS06", "GHS08"]
  },
  {
    "name": "Ethanol",
    "trade_name": "Ethylalkohol",
    "cas": "64-17-5",
    "ec": "200-578-6",
    "description": "Lösungsmittel, Desinfektionsmittel, Kraftstoff",
    "storage_class": "3",
    "is_cmr": false,
    "flash_point_c": 13.0,
    "ignition_temperature_c": 400.0,
    "lower_explosion_limit": 3.1,
    "upper_explosion_limit": 27.7,
    "temperature_class": "T2",
    "explosion_group": "IIB",
    "vapor_density": 1.6,
    "signal_word": "danger",
    "h_statements": ["H225", "H319"],
    "p_statements": ["P210", "P233", "P240", "P241", "P242", "P243", "P280", "P305", "P351", "P338", "P403"],
    "pictograms": ["GHS02"]
  },
  {
    "name": "Isopropanol",
    "trade_name": "2-Propanol",
    "cas": "67-63-0",
    "ec": "200-661-7",
    "description": "Lösungsmittel, Reinigungsmittel, Desinfektionsmittel",
    "storage_class": "3",
    "is_cmr": false,
    "flash_point_c": 12.0,
    "ignition_temperature_c": 425.0,
    "lower_explosion_limit": 2.0,
    "upper_explosion_limit": 12.7,
    "temperature_class": "T1",
    "explosion_group": "IIA",
    "vapor_density": 2.1,
    "signal_word": "danger",
    "h_statements": ["H225", "H319", "H336"],
    "p_statements": ["P210", "P233", "P240", "P241", "P305", "P351", "P338", "P403"],
    "pictograms": ["GHS02", "GHS07"]
  },
  {
    "name": "Toluol",
    "trade_name": "Methylbenzol",
    "cas": "108-88-3",
    "ec": "203-625-9",
    "description": "Lösungsmittel, Verdünnungsmittel, Synthesechemikalie",
    "storage_class": "3",
    "is_cmr": false,
    "flash_point_c": 4.0,
    "ignition_temperature_c": 535.0,
    "lower_explosion_limit": 1.1,
    "upper_explosion_limit": 7.1,
    "temperature_class": "T1",
    "explosion_group": "IIA",
    "vapor_density": 3.2,
    "signal_word": "danger",
    "h_statements": ["H225", "H304", "H315", "H332", "H336", "H361", "H373"],
    "p_statements": ["P210", "P240", "P280", "P301", "P310", "P331", "P403"],
    "pictograms": ["GHS02", "GHS07", "GHS08"]
  },
  {
    "name": "Xylol (Isomerengemisch)",
    "trade_name": "Dimethylbenzol",
    "cas": "1330-20-7",
    "ec": "215-535-7",
    "description": "Lösungsmittel, Verdünnungsmittel in Lacken und Farben",
    "storage_class": "3",
    "is_cmr": false,
    "flash_point_c": 25.0,
    "ignition_temperature_c": 463.0,
    "lower_explosion_limit": 1.0,
    "upper_explosion_limit": 7.0,
    "temperature_class": "T1",
    "explosion_group": "IIA",
    "vapor_density": 3.7,
    "signal_word": "danger",
    "h_statements": ["H226", "H304", "H312", "H315", "H319", "H332", "H335", "H373"],
    "p_statements": ["P210", "P261", "P280", "P301", "P310", "P331", "P403"],
    "pictograms": ["GHS02", "GHS07", "GHS08"]
  },
  {
    "name": "n-Hexan",
    "trade_name": "",
    "cas": "110-54-3",
    "ec": "203-777-6",
    "description": "Lösungsmittel, Extraktionsmittel in der Lebensmittelindustrie",
    "storage_class": "3",
    "is_cmr": false,
    "flash_point_c": -22.0,
    "ignition_temperature_c": 233.0,
    "lower_explosion_limit": 1.1,
    "upper_explosion_limit": 7.5,
    "temperature_class": "T3",
    "explosion_group": "IIA",
    "vapor_density": 3.0,
    "signal_word": "danger",
    "h_statements": ["H225", "H304", "H315", "H336", "H361", "H373", "H411"],
    "p_statements": ["P210", "P240", "P273", "P280", "P301", "P310", "P331", "P403"],
    "pictograms": ["GHS02", "GHS07", "GHS08", "GHS09"]
  },
  {
    "name": "Dichlormethan",
    "trade_name": "Methylenchlorid",
    "cas": "75-09-2",
    "ec": "200-838-9",
    "description": "Lösungsmittel, Entfetter, Abbeizmittel",
    "storage_class": "6.1A",
    "is_cmr": true,
    "flash_point_c": null,
    "ignition_temperature_c": 605.0,
    "lower_explosion_limit": 13.0,
    "upper_explosion_limit": 22.0,
    "temperature_class": "T1",
    "explosion_group": "IIA",
    "vapor_density": 2.9,
    "signal_word": "warning",
    "h_statements": ["H302", "H315", "H336", "H351"],
    "p_statements": ["P201", "P261", "P280", "P308", "P313"],
    "pictograms": ["GHS07", "GHS08"]
  },
  {
    "name": "Schwefelsäure",
    "trade_name": "",
    "cas": "7664-93-9",
    "ec": "231-639-5",
    "description": "Säure für Batterien, Reinigung, chemische Synthese",
    "storage_class": "8B",
    "is_cmr": false,
    "flash_point_c": null,
    "ignition_temperature_c": null,
    "lower_explosion_limit": null,
    "upper_explosion_limit": null,
    "temperature_class": "",
    "explosion_group": "",
    "vapor_density": 3.4,
    "signal_word": "danger",
    "h_statements": ["H290", "H314"],
    "p_statements": ["P260", "P280", "P301", "P330", "P331", "P303", "P361", "P353", "P305", "P351", "P338", "P310", "P405", "P501"],
    "pictograms": ["GHS05"]
  },
  {
    "name": "Salzsäure (37%)",
    "trade_name": "Chlorwasserstoffsäure",
    "cas": "7647-01-0",
    "ec": "231-595-7",
    "description": "Säure für Metallbearbeitung, pH-Regulierung, Reinigung",
    "storage_class": "8B",
    "is_cmr": false,
    "flash_point_c": null,
    "ignition_temperature_c": null,
    "lower_explosion_limit": null,
    "upper_explosion_limit": null,
    "temperature_class": "",
    "explosion_group": "",
    "vapor_density": 1.3,
    "signal_word": "danger",
    "h_statements": ["H290", "H314", "H335"],
    "p_statements": ["P260", "P280", "P301", "P330", "P331", "P303", "P361", "P353", "P305", "P351", "P338", "P310"],
    "pictograms": ["GHS05", "GHS07"]
  },
  {
    "name": "Natronlauge (50%)",
    "trade_name": "Natriumhydroxid-Lösung",
    "cas": "1310-73-2",
    "ec": "215-185-5",
    "description": "Reinigung, pH-Regulierung, chemische Synthese",
    "storage_class": "8B",
    "is_cmr": false,
    "flash_point_c": null,
    "ignition_temperature_c": null,
    "lower_explosion_limit": null,
    "upper_explosion_limit": null,
    "temperature_class": "",
    "explosion_group": "",
    "vapor_density": null,
    "signal_word": "danger",
    "h_statements": ["H290", "H314"],
    "p_statements": ["P260", "P280", "P301", "P330", "P331", "P305", "P351", "P338", "P310"],
    "pictograms": ["GHS05"]
  },
  {
    "name": "Wasserstoffperoxid (30%)",
    "trade_name": "",
    "cas": "7722-84-1",
    "ec": "231-765-0",
    "description": "Bleichmittel, Desinfektionsmittel, Oxidationsmittel",
    "storage_class": "5.1B",
    "is_cmr": false,
    "flash_point_c": null,
    "ignition_temperature_c": null,
    "lower_explosion_limit": null,
    "upper_explosion_limit": null,
    "temperature_class": "",
    "explosion_group": "",
    "vapor_density": 1.2,
    "signal_word": "danger",
    "h_statements": ["H271", "H302", "H314", "H332"],
    "p_statements": ["P210", "P220", "P260", "P280", "P301", "P330", "P331", "P305", "P351", "P338", "P310"],
    "pictograms": ["GHS03", "GHS05", "GHS07"]
  },
  {
    "name": "Formaldehyd (37%)",
    "trade_name": "Formalin",
    "cas": "50-00-0",
    "ec": "200-001-8",
    "description": "Konservierungsmittel, Desinfektionsmittel, Kunststoffherstellung",
    "storage_class": "6.1A",
    "is_cmr": true,
    "flash_point_c": 50.0,
    "ignition_temperature_c": 430.0,
    "lower_explosion_limit": 7.0,
    "upper_explosion_limit": 73.0,
    "temperature_class": "T2",
    "explosion_group": "IIB",
    "vapor_density": 1.0,
    "signal_word": "danger",
    "h_statements": ["H301", "H311", "H314", "H317", "H331", "H335", "H340", "H350", "H370"],
    "p_statements": ["P201", "P210", "P260", "P280", "P301", "P310", "P330", "P305", "P351", "P338"],
    "pictograms": ["GHS02", "GHS05", "GHS06", "GHS08"]
  },
  {
    "name": "Benzol",
    "trade_name": "",
    "cas": "71-43-2",
    "ec": "200-753-7",
    "description": "Synthesechemikalie (hochgefährlich, CMR-Stoff Kat. 1A)",
    "storage_class": "3",
    "is_cmr": true,
    "flash_point_c": -11.0,
    "ignition_temperature_c": 555.0,
    "lower_explosion_limit": 1.2,
    "upper_explosion_limit": 8.0,
    "temperature_class": "T1",
    "explosion_group": "IIA",
    "vapor_density": 2.8,
    "signal_word": "danger",
    "h_statements": ["H225", "H304", "H315", "H319", "H340", "H350", "H372"],
    "p_statements": ["P201", "P210", "P240", "P280", "P301", "P310", "P331", "P308", "P313", "P403"],
    "pictograms": ["GHS02", "GHS07", "GHS08"]
  },
  {
    "name": "Ammoniak (25% Lösung)",
    "trade_name": "Salmiakgeist",
    "cas": "7664-41-7",
    "ec": "231-635-3",
    "description": "Reinigungsmittel, Kältemittel, Düngemittelherstellung",
    "storage_class": "8B",
    "is_cmr": false,
    "flash_point_c": null,
    "ignition_temperature_c": 630.0,
    "lower_explosion_limit": 15.0,
    "upper_explosion_limit": 28.0,
    "temperature_class": "T1",
    "explosion_group": "IIA",
    "vapor_density": 0.6,
    "signal_word": "danger",
    "h_statements": ["H221", "H280", "H314", "H331", "H400"],
    "p_statements": ["P210", "P260", "P273", "P280", "P304", "P340", "P310", "P305", "P351", "P338", "P403"],
    "pictograms": ["GHS04", "GHS05", "GHS06", "GHS09"]
  },
  {
    "name": "Salpetersäure (65%)",
    "trade_name": "",
    "cas": "7697-37-2",
    "ec": "231-714-2",
    "description": "Ätzmittel, Metallbearbeitung, Düngemittelherstellung",
    "storage_class": "5.1A",
    "is_cmr": false,
    "flash_point_c": null,
    "ignition_temperature_c": null,
    "lower_explosion_limit": null,
    "upper_explosion_limit": null,
    "temperature_class": "",
    "explosion_group": "",
    "vapor_density": 2.2,
    "signal_word": "danger",
    "h_statements": ["H272", "H290", "H314"],
    "p_statements": ["P210", "P220", "P260", "P280", "P301", "P330", "P331", "P305", "P351", "P338", "P310"],
    "pictograms": ["GHS03", "GHS05"]
  },
  {
    "name": "Phosphorsäure (85%)",
    "trade_name": "",
    "cas": "7664-38-2",
    "ec": "231-633-2",
    "description": "Rostentferner, Lebensmittelzusatzstoff E338, Düngemittel",
    "storage_class": "8B",
    "is_cmr": false,
    "flash_point_c": null,
    "ignition_temperature_c": null,
    "lower_explosion_limit": null,
    "upper_explosion_limit": null,
    "temperature_class": "",
    "explosion_group": "",
    "vapor_density": 3.4,
    "signal_word": "danger",
    "h_statements": ["H290", "H314"],
    "p_statements": ["P260", "P280", "P301", "P330", "P331", "P305", "P351", "P338", "P310"],
    "pictograms": ["GHS05"]
  },
  {
    "name": "Essigsäure (Eisessig)",
    "trade_name": "Ethansäure",
    "cas": "64-19-7",
    "ec": "200-580-7",
    "description": "Lösungsmittel, Lebensmittelzusatz, Reinigungsmittel",
    "storage_class": "8A",
    "is_cmr": false,
    "flash_point_c": 40.0,
    "ignition_temperature_c": 485.0,
    "lower_explosion_limit": 4.0,
    "upper_explosion_limit": 19.9,
    "temperature_class": "T1",
    "explosion_group": "IIA",
    "vapor_density": 2.1,
    "signal_word": "danger",
    "h_statements": ["H226", "H314"],
    "p_statements": ["P210", "P260", "P280", "P301", "P330", "P331", "P305", "P351", "P338", "P310"],
    "pictograms": ["GHS02", "GHS05"]
  },
  {
    "name": "Ethylacetat",
    "trade_name": "Essigsäureethylester",
    "cas": "141-78-6",
    "ec": "205-500-4",
    "description": "Lösungsmittel für Klebstoffe, Lacke, Druckfarben",
    "storage_class": "3",
    "is_cmr": false,
    "flash_point_c": -4.0,
    "ignition_temperature_c": 460.0,
    "lower_explosion_limit": 2.0,
    "upper_explosion_limit": 11.5,
    "temperature_class": "T1",
    "explosion_group": "IIA",
    "vapor_density": 3.0,
    "signal_word": "danger",
    "h_statements": ["H225", "H319", "H336"],
    "p_statements": ["P210", "P233", "P240", "P241", "P280", "P305", "P351", "P338", "P403"],
    "pictograms": ["GHS02", "GHS07"]
  },
  {
    "name": "Butylacetat",
    "trade_name": "Essigsäurebutylester",
    "cas": "123-86-4",
    "ec": "204-658-1",
    "description": "Lösungsmittel für Lacke und Beschichtungen",
    "storage_class": "3",
    "is_cmr": false,
    "flash_point_c": 22.0,
    "ignition_temperature_c": 370.0,
    "lower_explosion_limit": 1.2,
    "upper_explosion_limit": 7.6,
    "temperature_class": "T2",
    "explosion_group": "IIA",
    "vapor_density": 4.0,
    "signal_word": "danger",
    "h_statements": ["H226", "H336"],
    "p_statements": ["P210", "P233", "P240", "P241", "P403"],
    "pictograms": ["GHS02", "GHS07"]
  },
  {
    "name": "Methylethylketon",
    "trade_name": "MEK / Butanon",
    "cas": "78-93-3",
    "ec": "201-159-0",
    "description": "Lösungsmittel, Klebstoffe, Druckfarben",
    "storage_class": "3",
    "is_cmr": false,
    "flash_point_c": -9.0,
    "ignition_temperature_c": 505.0,
    "lower_explosion_limit": 1.4,
    "upper_explosion_limit": 11.4,
    "temperature_class": "T1",
    "explosion_group": "IIA",
    "vapor_density": 2.5,
    "signal_word": "danger",
    "h_statements": ["H225", "H319", "H336"],
    "p_statements": ["P210", "P233", "P240", "P241", "P280", "P305", "P351", "P338", "P403"],
    "pictograms": ["GHS02", "GHS07"]
  },
  {
    "name": "Diethylether",
    "trade_name": "Ether",
    "cas": "60-29-7",
    "ec": "200-467-2",
    "description": "Lösungsmittel, Narkosemittel, Extraktionsmittel",
    "storage_class": "3",
    "is_cmr": false,
    "flash_point_c": -45.0,
    "ignition_temperature_c": 170.0,
    "lower_explosion_limit": 1.7,
    "upper_explosion_limit": 36.0,
    "temperature_class": "T4",
    "explosion_group": "IIB",
    "vapor_density": 2.6,
    "signal_word": "danger",
    "h_statements": ["H224", "H302", "H336"],
    "p_statements": ["P210", "P233", "P240", "P241", "P242", "P243", "P280", "P403"],
    "pictograms": ["GHS02", "GHS07"]
  },
  {
    "name": "Natriumhypochlorit-Lösung (12%)",
    "trade_name": "Chlorbleichlauge",
    "cas": "7681-52-9",
    "ec": "231-668-3",
    "description": "Desinfektionsmittel, Bleichmittel, Wasseraufbereitung",
    "storage_class": "8B",
    "is_cmr": false,
    "flash_point_c": null,
    "ignition_temperature_c": null,
    "lower_explosion_limit": null,
    "upper_explosion_limit": null,
    "temperature_class": "",
    "explosion_group": "",
    "vapor_density": null,
    "signal_word": "danger",
    "h_statements": ["H290", "H314", "H400"],
    "p_statements": ["P260", "P273", "P280", "P301", "P330", "P331", "P305", "P351", "P338", "P310"],
    "pictograms": ["GHS05", "GHS09"]
  },
  {
    "name": "Propan",
    "trade_name": "",
    "cas": "74-98-6",
    "ec": "200-827-9",
    "description": "Brenngas, Treibgas, Kältemittel R-290",
    "storage_class": "2A",
    "is_cmr": false,
    "flash_point_c": -104.0,
    "ignition_temperature_c": 470.0,
    "lower_explosion_limit": 1.7,
    "upper_explosion_limit": 10.9,
    "temperature_class": "T1",
    "explosion_group": "IIA",
    "vapor_density": 1.6,
    "signal_word": "danger",
    "h_statements": ["H220", "H280"],
    "p_statements": ["P210", "P377", "P381", "P410", "P403"],
    "pictograms": ["GHS02", "GHS04"]
  },
  {
    "name": "Acetylen (gelöst)",
    "trade_name": "Ethin",
    "cas": "74-86-2",
    "ec": "200-816-9",
    "description": "Schweißgas, Synthesechemikalie",
    "storage_class": "2A",
    "is_cmr": false,
    "flash_point_c": -18.0,
    "ignition_temperature_c": 305.0,
    "lower_explosion_limit": 2.3,
    "upper_explosion_limit": 100.0,
    "temperature_class": "T2",
    "explosion_group": "IIC",
    "vapor_density": 0.9,
    "signal_word": "danger",
    "h_statements": ["H220", "H280"],
    "p_statements": ["P210", "P377", "P381", "P410", "P403"],
    "pictograms": ["GHS02", "GHS04"]
  },
  {
    "name": "Wasserstoff",
    "trade_name": "",
    "cas": "1333-74-0",
    "ec": "215-605-7",
    "description": "Brenngas, Energieträger, Reduktionsmittel",
    "storage_class": "2A",
    "is_cmr": false,
    "flash_point_c": null,
    "ignition_temperature_c": 560.0,
    "lower_explosion_limit": 4.0,
    "upper_explosion_limit": 77.0,
    "temperature_class": "T1",
    "explosion_group": "IIC",
    "vapor_density": 0.07,
    "signal_word": "danger",
    "h_statements": ["H220", "H280"],
    "p_statements": ["P210", "P377", "P381", "P410", "P403"],
    "pictograms": ["GHS02", "GHS04"]
  },
  {
    "name": "Styrol",
    "trade_name": "Vinylbenzol",
    "cas": "100-42-5",
    "ec": "202-851-5",
    "description": "Monomer für Polystyrol, GFK-Herstellung",
    "storage_class": "3",
    "is_cmr": true,
    "flash_point_c": 31.0,
    "ignition_temperature_c": 490.0,
    "lower_explosion_limit": 0.9,
    "upper_explosion_limit": 6.8,
    "temperature_class": "T1",
    "explosion_group": "IIA",
    "vapor_density": 3.6,
    "signal_word": "danger",
    "h_statements": ["H226", "H315", "H319", "H332", "H361", "H372"],
    "p_statements": ["P210", "P261", "P280", "P305", "P351", "P338", "P308", "P313"],
    "pictograms": ["GHS02", "GHS07", "GHS08"]
  },
  {
    "name": "Chromtrioxid",
    "trade_name": "Chromsäureanhydrid",
    "cas": "1333-82-0",
    "ec": "215-607-8",
    "description": "Galvanotechnik, Metallveredelung (SVHC, CMR Kat. 1A)",
    "storage_class": "5.1A",
    "is_cmr": true,
    "flash_point_c": null,
    "ignition_temperature_c": null,
    "lower_explosion_limit": null,
    "upper_explosion_limit": null,
    "temperature_class": "",
    "explosion_group": "",
    "vapor_density": null,
    "signal_word": "danger",
    "h_statements": ["H271", "H301", "H311", "H314", "H317", "H330", "H334", "H340", "H350", "H361", "H370", "H372", "H400", "H410"],
    "p_statements": ["P201", "P210", "P220", "P260", "P273", "P280", "P284", "P301", "P310", "P305", "P351", "P338"],
    "pictograms": ["GHS03", "GHS05", "GHS06", "GHS08", "GHS09"]
  },
  {
    "name": "Blei(II)-acetat",
    "trade_name": "Bleizucker",
    "cas": "301-04-2",
    "ec": "206-104-4",
    "description": "Galvanotechnik, Laborreagenz (CMR-Stoff Kat. 1A)",
    "storage_class": "6.1C",
    "is_cmr": true,
    "flash_point_c": null,
    "ignition_temperature_c": null,
    "lower_explosion_limit": null,
    "upper_explosion_limit": null,
    "temperature_class": "",
    "explosion_group": "",
    "vapor_density": null,
    "signal_word": "danger",
    "h_statements": ["H302", "H332", "H360", "H373", "H400", "H410"],
    "p_statements": ["P201", "P260", "P273", "P280", "P301", "P312", "P308", "P313"],
    "pictograms": ["GHS07", "GHS08", "GHS09"]
  },
  {
    "name": "Dieselkraftstoff",
    "trade_name": "",
    "cas": "68476-34-6",
    "ec": "270-676-1",
    "description": "Kraftstoff für Dieselmotoren",
    "storage_class": "3",
    "is_cmr": true,
    "flash_point_c": 55.0,
    "ignition_temperature_c": 250.0,
    "lower_explosion_limit": 0.5,
    "upper_explosion_limit": 6.5,
    "temperature_class": "T3",
    "explosion_group": "IIA",
    "vapor_density": 4.5,
    "signal_word": "danger",
    "h_statements": ["H226", "H304", "H315", "H332", "H351", "H373", "H411"],
    "p_statements": ["P210", "P261", "P273", "P280", "P301", "P310", "P331"],
    "pictograms": ["GHS02", "GHS07", "GHS08", "GHS09"]
  },
  {
    "name": "Kaliumhydroxid",
    "trade_name": "Kalilauge (fest)",
    "cas": "1310-58-3",
    "ec": "215-181-3",
    "description": "Reinigungsmittel, pH-Regulierung, Seifenherstellung",
    "storage_class": "8B",
    "is_cmr": false,
    "flash_point_c": null,
    "ignition_temperature_c": null,
    "lower_explosion_limit": null,
    "upper_explosion_limit": null,
    "temperature_class": "",
    "explosion_group": "",
    "vapor_density": null,
    "signal_word": "danger",
    "h_statements": ["H290", "H302", "H314"],
    "p_statements": ["P260", "P280", "P301", "P330", "P331", "P305", "P351", "P338", "P310"],
    "pictograms": ["GHS05", "GHS07"]
  },
  {
    "name": "Natriumhydroxid (Perlen)",
    "trade_name": "Ätznatron",
    "cas": "1310-73-2",
    "ec": "215-185-5",
    "description": "Reinigung, Neutralisation, Seifenherstellung",
    "storage_class": "8B",
    "is_cmr": false,
    "flash_point_c": null,
    "ignition_temperature_c": null,
    "lower_explosion_limit": null,
    "upper_explosion_limit": null,
    "temperature_class": "",
    "explosion_group": "",
    "vapor_density": null,
    "signal_word": "danger",
    "h_statements": ["H290", "H314"],
    "p_statements": ["P260", "P280", "P301", "P330", "P331", "P305", "P351", "P338", "P310"],
    "pictograms": ["GHS05"]
  },
  {
    "name": "Tetrahydrofuran",
    "trade_name": "THF",
    "cas": "109-99-9",
    "ec": "203-726-8",
    "description": "Lösungsmittel, PVC-Klebstoff, Synthesechemikalie",
    "storage_class": "3",
    "is_cmr": false,
    "flash_point_c": -14.5,
    "ignition_temperature_c": 224.0,
    "lower_explosion_limit": 1.5,
    "upper_explosion_limit": 12.4,
    "temperature_class": "T3",
    "explosion_group": "IIB",
    "vapor_density": 2.5,
    "signal_word": "danger",
    "h_statements": ["H225", "H302", "H319", "H335", "H351"],
    "p_statements": ["P201", "P210", "P233", "P240", "P280", "P305", "P351", "P338", "P403"],
    "pictograms": ["GHS02", "GHS07", "GHS08"]
  },
  {
    "name": "Cyclohexanon",
    "trade_name": "",
    "cas": "108-94-1",
    "ec": "203-631-1",
    "description": "Lösungsmittel, Nylon-Herstellung, Lackindustrie",
    "storage_class": "3",
    "is_cmr": false,
    "flash_point_c": 44.0,
    "ignition_temperature_c": 420.0,
    "lower_explosion_limit": 1.1,
    "upper_explosion_limit": 9.4,
    "temperature_class": "T2",
    "explosion_group": "IIA",
    "vapor_density": 3.4,
    "signal_word": "warning",
    "h_statements": ["H226", "H302", "H312", "H319", "H332"],
    "p_statements": ["P210", "P280", "P305", "P351", "P338"],
    "pictograms": ["GHS02", "GHS07"]
  },
  {
    "name": "Epichlorhydrin",
    "trade_name": "",
    "cas": "106-89-8",
    "ec": "203-439-8",
    "description": "Epoxidharz-Herstellung (CMR-Stoff Kat. 1B)",
    "storage_class": "6.1A",
    "is_cmr": true,
    "flash_point_c": 33.0,
    "ignition_temperature_c": 416.0,
    "lower_explosion_limit": 2.3,
    "upper_explosion_limit": 21.0,
    "temperature_class": "T2",
    "explosion_group": "IIA",
    "vapor_density": 3.2,
    "signal_word": "danger",
    "h_statements": ["H226", "H301", "H311", "H314", "H317", "H331", "H350"],
    "p_statements": ["P201", "P210", "P260", "P280", "P301", "P310", "P330", "P304", "P340"],
    "pictograms": ["GHS02", "GHS05", "GHS06", "GHS08"]
  },
  {
    "name": "Natriumnitrit",
    "trade_name": "",
    "cas": "7632-00-0",
    "ec": "231-555-9",
    "description": "Korrosionsschutz, Lebensmittelzusatzstoff E250",
    "storage_class": "5.1B",
    "is_cmr": false,
    "flash_point_c": null,
    "ignition_temperature_c": null,
    "lower_explosion_limit": null,
    "upper_explosion_limit": null,
    "temperature_class": "",
    "explosion_group": "",
    "vapor_density": null,
    "signal_word": "danger",
    "h_statements": ["H272", "H301", "H319", "H400"],
    "p_statements": ["P210", "P220", "P273", "P280", "P301", "P310"],
    "pictograms": ["GHS03", "GHS06", "GHS09"]
  },
  {
    "name": "Dimethylformamid",
    "trade_name": "DMF",
    "cas": "68-12-2",
    "ec": "200-679-5",
    "description": "Lösungsmittel für Kunstfasern, Lacke, Klebstoffe",
    "storage_class": "6.1C",
    "is_cmr": true,
    "flash_point_c": 58.0,
    "ignition_temperature_c": 445.0,
    "lower_explosion_limit": 2.2,
    "upper_explosion_limit": 15.2,
    "temperature_class": "T2",
    "explosion_group": "IIA",
    "vapor_density": 2.5,
    "signal_word": "danger",
    "h_statements": ["H226", "H312", "H319", "H332", "H360"],
    "p_statements": ["P201", "P210", "P260", "P280", "P308", "P313"],
    "pictograms": ["GHS02", "GHS07", "GHS08"]
  },
  {
    "name": "Chlor (gasförmig)",
    "trade_name": "",
    "cas": "7782-50-5",
    "ec": "231-959-5",
    "description": "Wasseraufbereitung, Desinfektionsmittel, Synthesechemikalie",
    "storage_class": "2A",
    "is_cmr": false,
    "flash_point_c": null,
    "ignition_temperature_c": null,
    "lower_explosion_limit": null,
    "upper_explosion_limit": null,
    "temperature_class": "",
    "explosion_group": "",
    "vapor_density": 2.5,
    "signal_word": "danger",
    "h_statements": ["H270", "H280", "H315", "H319", "H330", "H335", "H400"],
    "p_statements": ["P220", "P244", "P260", "P273", "P280", "P284", "P304", "P340", "P310", "P403"],
    "pictograms": ["GHS03", "GHS04", "GHS06", "GHS09"]
  },
  {
    "name": "Fluorwasserstoffsäure (48%)",
    "trade_name": "Flusssäure",
    "cas": "7664-39-3",
    "ec": "231-634-8",
    "description": "Glasätzen, Metallbearbeitung, Halbleiterindustrie",
    "storage_class": "6.1A",
    "is_cmr": false,
    "flash_point_c": null,
    "ignition_temperature_c": null,
    "lower_explosion_limit": null,
    "upper_explosion_limit": null,
    "temperature_class": "",
    "explosion_group": "",
    "vapor_density": 0.7,
    "signal_word": "danger",
    "h_statements": ["H300", "H310", "H314", "H330"],
    "p_statements": ["P260", "P264", "P280", "P284", "P301", "P310", "P330", "P302", "P352", "P304", "P340"],
    "pictograms": ["GHS05", "GHS06"]
  },
  {
    "name": "Calciumhypochlorit",
    "trade_name": "Chlorkalk",
    "cas": "7778-54-3",
    "ec": "231-908-7",
    "description": "Wasseraufbereitung, Desinfektionsmittel",
    "storage_class": "5.1B",
    "is_cmr": false,
    "flash_point_c": null,
    "ignition_temperature_c": null,
    "lower_explosion_limit": null,
    "upper_explosion_limit": null,
    "temperature_class": "",
    "explosion_group": "",
    "vapor_density": null,
    "signal_word": "danger",
    "h_statements": ["H272", "H302", "H314", "H400"],
    "p_statements": ["P210", "P220", "P260", "P273", "P280", "P305", "P351", "P338", "P310"],
    "pictograms": ["GHS03", "GHS05", "GHS07", "GHS09"]
  }
]
